# vtk DataFile Version 4.2
vtk output
ASCII
DATASET UNSTRUCTURED_GRID
POINTS 12323 float
0 0 0 0.1 0 0 0.2 0 0 
0.35 0 0 0.5 0 0 0.65625 0 0 
0.8125 0 0 0.96875 0 0 1.125 0 0 
1.28125 0 0 1.4375 0 0 1.59375 0 0 
1.75 0 0 1.90625 0 0 2.0625 0 0 
2.21875 0 0 2.375 0 0 2.53125 0 0 
2.6875 0 0 2.84375 0 0 3 0 0 
3.1 0 0 3.26111 0 0 3.42222 0 0 
3.58333 0 0 3.74444 0 0 3.90556 0 0 
4.06667 0 0 4.22778 0 0 4.38889 0 0 
4.55 0 0 4.71111 0 0 4.87222 0 0 
5.03333 0 0 5.19444 0 0 5.35556 0 0 
5.51667 0 0 5.67778 0 0 5.83889 0 0 
6 0 0 0 0.05 0 0.1 0.05 0 
0.2 0.05 0 0.35 0.05 0 0.5 0.05 0 
0.65625 0.05 0 0.8125 0.05 0 0.96875 0.05 0 
1.125 0.05 0 1.28125 0.05 0 1.4375 0.05 0 
1.59375 0.05 0 1.75 0.05 0 1.90625 0.05 0 
2.0625 0.05 0 2.21875 0.05 0 2.375 0.05 0 
2.53125 0.05 0 2.6875 0.05 0 2.84375 0.05 0 
3 0.05 0 3.1 0.05 0 3.26111 0.05 0 
3.42222 0.05 0 3.58333 0.05 0 3.74444 0.05 0 
3.90556 0.05 0 4.06667 0.05 0 4.22778 0.05 0 
4.38889 0.05 0 4.55 0.05 0 4.71111 0.05 0 
4.87222 0.05 0 5.03333 0.05 0 5.19444 0.05 0 
5.35556 0.05 0 5.51667 0.05 0 5.67778 0.05 0 
5.83889 0.05 0 6 0.05 0 0 0.1 0 
0.1 0.1 0 0.2 0.1 0 0.35 0.1 0 
0.5 0.1 0 0.65625 0.1 0 0.8125 0.1 0 
0.96875 0.1 0 1.125 0.1 0 1.28125 0.1 0 
1.4375 0.1 0 1.59375 0.1 0 1.75 0.1 0 
1.90625 0.1 0 2.0625 0.1 0 2.21875 0.1 0 
2.375 0.1 0 2.53125 0.1 0 2.6875 0.1 0 
2.84375 0.1 0 3 0.1 0 3.1 0.1 0 
3.26111 0.1 0 3.42222 0.1 0 3.58333 0.1 0 
3.74444 0.1 0 3.90556 0.1 0 4.06667 0.1 0 
4.22778 0.1 0 4.38889 0.1 0 4.55 0.1 0 
4.71111 0.1 0 4.87222 0.1 0 5.03333 0.1 0 
5.19444 0.1 0 5.35556 0.1 0 5.51667 0.1 0 
5.67778 0.1 0 5.83889 0.1 0 6 0.1 0 
0 0.275 0 0.1 0.275 0 0.2 0.275 0 
0.35 0.275 0 0.5 0.275 0 0.65625 0.275 0 
0.8125 0.275 0 0.96875 0.275 0 1.125 0.275 0 
1.28125 0.275 0 1.4375 0.275 0 1.59375 0.275 0 
1.75 0.275 0 1.90625 0.275 0 2.0625 0.275 0 
2.21875 0.275 0 2.375 0.275 0 2.53125 0.275 0 
2.6875 0.275 0 2.84375 0.275 0 3 0.275 0 
3.1 0.275 0 3.26111 0.275 0 3.42222 0.275 0 
3.58333 0.275 0 3.74444 0.275 0 3.90556 0.275 0 
4.06667 0.275 0 4.22778 0.275 0 4.38889 0.275 0 
4.55 0.275 0 4.71111 0.275 0 4.87222 0.275 0 
5.03333 0.275 0 5.19444 0.275 0 5.35556 0.275 0 
5.51667 0.275 0 5.67778 0.275 0 5.83889 0.275 0 
6 0.275 0 0 0.45 0 0.1 0.45 0 
0.2 0.45 0 0.35 0.45 0 0.5 0.45 0 
0.65625 0.45 0 0.8125 0.45 0 0.96875 0.45 0 
1.125 0.45 0 1.28125 0.45 0 1.4375 0.45 0 
1.59375 0.45 0 1.75 0.45 0 1.90625 0.45 0 
2.0625 0.45 0 2.21875 0.45 0 2.375 0.45 0 
2.53125 0.45 0 2.6875 0.45 0 2.84375 0.45 0 
3 0.45 0 3.1 0.45 0 3.26111 0.45 0 
3.42222 0.45 0 3.58333 0.45 0 3.74444 0.45 0 
3.90556 0.45 0 4.06667 0.45 0 4.22778 0.45 0 
4.38889 0.45 0 4.55 0.45 0 4.71111 0.45 0 
4.87222 0.45 0 5.03333 0.45 0 5.19444 0.45 0 
5.35556 0.45 0 5.51667 0.45 0 5.67778 0.45 0 
5.83889 0.45 0 6 0.45 0 0 0.625 0 
0.1 0.625 0 0.2 0.625 0 0.35 0.625 0 
0.5 0.625 0 0.65625 0.625 0 0.8125 0.625 0 
0.96875 0.625 0 1.125 0.625 0 1.28125 0.625 0 
1.4375 0.625 0 1.59375 0.625 0 1.75 0.625 0 
1.90625 0.625 0 2.0625 0.625 0 2.21875 0.625 0 
2.375 0.625 0 2.53125 0.625 0 2.6875 0.625 0 
2.84375 0.625 0 3 0.625 0 3.1 0.625 0 
3.26111 0.625 0 3.42222 0.625 0 3.58333 0.625 0 
3.74444 0.625 0 3.90556 0.625 0 4.06667 0.625 0 
4.22778 0.625 0 4.38889 0.625 0 4.55 0.625 0 
4.71111 0.625 0 4.87222 0.625 0 5.03333 0.625 0 
5.19444 0.625 0 5.35556 0.625 0 5.51667 0.625 0 
5.67778 0.625 0 5.83889 0.625 0 6 0.625 0 
0 0.8 0 0.1 0.8 0 0.2 0.8 0 
0.35 0.8 0 0.5 0.8 0 0.65625 0.8 0 
0.8125 0.8 0 0.96875 0.8 0 1.125 0.8 0 
1.28125 0.8 0 1.4375 0.8 0 1.59375 0.8 0 
1.75 0.8 0 1.90625 0.8 0 2.0625 0.8 0 
2.21875 0.8 0 2.375 0.8 0 2.53125 0.8 0 
2.6875 0.8 0 2.84375 0.8 0 3 0.8 0 
3.1 0.8 0 3.26111 0.8 0 3.42222 0.8 0 
3.58333 0.8 0 3.74444 0.8 0 3.90556 0.8 0 
4.06667 0.8 0 4.22778 0.8 0 4.38889 0.8 0 
4.55 0.8 0 4.71111 0.8 0 4.87222 0.8 0 
5.03333 0.8 0 5.19444 0.8 0 5.35556 0.8 0 
5.51667 0.8 0 5.67778 0.8 0 5.83889 0.8 0 
6 0.8 0 0 0.957143 0 0.1 0.957143 0 
0.2 0.957143 0 0.35 0.957143 0 0.5 0.957143 0 
0.65625 0.957143 0 0.8125 0.957143 0 0.96875 0.957143 0 
1.125 0.957143 0 1.28125 0.957143 0 1.4375 0.957143 0 
1.59375 0.957143 0 1.75 0.957143 0 1.90625 0.957143 0 
2.0625 0.957143 0 2.21875 0.957143 0 2.375 0.957143 0 
2.53125 0.957143 0 2.6875 0.957143 0 2.84375 0.957143 0 
3 0.957143 0 3.1 0.957143 0 3.26111 0.957143 0 
3.42222 0.957143 0 3.58333 0.957143 0 3.74444 0.957143 0 
3.90556 0.957143 0 4.06667 0.957143 0 4.22778 0.957143 0 
4.38889 0.957143 0 4.55 0.957143 0 4.71111 0.957143 0 
4.87222 0.957143 0 5.03333 0.957143 0 5.19444 0.957143 0 
5.35556 0.957143 0 5.51667 0.957143 0 5.67778 0.957143 0 
5.83889 0.957143 0 6 0.957143 0 0 1.11429 0 
0.1 1.11429 0 0.2 1.11429 0 0.35 1.11429 0 
0.5 1.11429 0 0.65625 1.11429 0 0.8125 1.11429 0 
0.96875 1.11429 0 1.125 1.11429 0 1.28125 1.11429 0 
1.4375 1.11429 0 1.59375 1.11429 0 1.75 1.11429 0 
1.90625 1.11429 0 2.0625 1.11429 0 2.21875 1.11429 0 
2.375 1.11429 0 2.53125 1.11429 0 2.6875 1.11429 0 
2.84375 1.11429 0 3 1.11429 0 3.1 1.11429 0 
3.26111 1.11429 0 3.42222 1.11429 0 3.58333 1.11429 0 
3.74444 1.11429 0 3.90556 1.11429 0 4.06667 1.11429 0 
4.22778 1.11429 0 4.38889 1.11429 0 4.55 1.11429 0 
4.71111 1.11429 0 4.87222 1.11429 0 5.03333 1.11429 0 
5.19444 1.11429 0 5.35556 1.11429 0 5.51667 1.11429 0 
5.67778 1.11429 0 5.83889 1.11429 0 6 1.11429 0 
0 1.27143 0 0.1 1.27143 0 0.2 1.27143 0 
0.35 1.27143 0 0.5 1.27143 0 0.65625 1.27143 0 
0.8125 1.27143 0 0.96875 1.27143 0 1.125 1.27143 0 
1.28125 1.27143 0 1.4375 1.27143 0 1.59375 1.27143 0 
1.75 1.27143 0 1.90625 1.27143 0 2.0625 1.27143 0 
2.21875 1.27143 0 2.375 1.27143 0 2.53125 1.27143 0 
2.6875 1.27143 0 2.84375 1.27143 0 3 1.27143 0 
3.1 1.27143 0 3.26111 1.27143 0 3.42222 1.27143 0 
3.58333 1.27143 0 3.74444 1.27143 0 3.90556 1.27143 0 
4.06667 1.27143 0 4.22778 1.27143 0 4.38889 1.27143 0 
4.55 1.27143 0 4.71111 1.27143 0 4.87222 1.27143 0 
5.03333 1.27143 0 5.19444 1.27143 0 5.35556 1.27143 0 
5.51667 1.27143 0 5.67778 1.27143 0 5.83889 1.27143 0 
6 1.27143 0 0 1.42857 0 0.1 1.42857 0 
0.2 1.42857 0 0.35 1.42857 0 0.5 1.42857 0 
0.65625 1.42857 0 0.8125 1.42857 0 0.96875 1.42857 0 
1.125 1.42857 0 1.28125 1.42857 0 1.4375 1.42857 0 
1.59375 1.42857 0 1.75 1.42857 0 1.90625 1.42857 0 
2.0625 1.42857 0 2.21875 1.42857 0 2.375 1.42857 0 
2.53125 1.42857 0 2.6875 1.42857 0 2.84375 1.42857 0 
3 1.42857 0 3.1 1.42857 0 3.26111 1.42857 0 
3.42222 1.42857 0 3.58333 1.42857 0 3.74444 1.42857 0 
3.90556 1.42857 0 4.06667 1.42857 0 4.22778 1.42857 0 
4.38889 1.42857 0 4.55 1.42857 0 4.71111 1.42857 0 
4.87222 1.42857 0 5.03333 1.42857 0 5.19444 1.42857 0 
5.35556 1.42857 0 5.51667 1.42857 0 5.67778 1.42857 0 
5.83889 1.42857 0 6 1.42857 0 0 1.58571 0 
0.1 1.58571 0 0.2 1.58571 0 0.35 1.58571 0 
0.5 1.58571 0 0.65625 1.58571 0 0.8125 1.58571 0 
0.96875 1.58571 0 1.125 1.58571 0 1.28125 1.58571 0 
1.4375 1.58571 0 1.59375 1.58571 0 1.75 1.58571 0 
1.90625 1.58571 0 2.0625 1.58571 0 2.21875 1.58571 0 
2.375 1.58571 0 2.53125 1.58571 0 2.6875 1.58571 0 
2.84375 1.58571 0 3 1.58571 0 3.1 1.58571 0 
3.26111 1.58571 0 3.42222 1.58571 0 3.58333 1.58571 0 
3.74444 1.58571 0 3.90556 1.58571 0 4.06667 1.58571 0 
4.22778 1.58571 0 4.38889 1.58571 0 4.55 1.58571 0 
4.71111 1.58571 0 4.87222 1.58571 0 5.03333 1.58571 0 
5.19444 1.58571 0 5.35556 1.58571 0 5.51667 1.58571 0 
5.67778 1.58571 0 5.83889 1.58571 0 6 1.58571 0 
0 1.74286 0 0.1 1.74286 0 0.2 1.74286 0 
0.35 1.74286 0 0.5 1.74286 0 0.65625 1.74286 0 
0.8125 1.74286 0 0.96875 1.74286 0 1.125 1.74286 0 
1.28125 1.74286 0 1.4375 1.74286 0 1.59375 1.74286 0 
1.75 1.74286 0 1.90625 1.74286 0 2.0625 1.74286 0 
2.21875 1.74286 0 2.375 1.74286 0 2.53125 1.74286 0 
2.6875 1.74286 0 2.84375 1.74286 0 3 1.74286 0 
3.1 1.74286 0 3.26111 1.74286 0 3.42222 1.74286 0 
3.58333 1.74286 0 3.74444 1.74286 0 3.90556 1.74286 0 
4.06667 1.74286 0 4.22778 1.74286 0 4.38889 1.74286 0 
4.55 1.74286 0 4.71111 1.74286 0 4.87222 1.74286 0 
5.03333 1.74286 0 5.19444 1.74286 0 5.35556 1.74286 0 
5.51667 1.74286 0 5.67778 1.74286 0 5.83889 1.74286 0 
6 1.74286 0 0 1.9 0 0.1 1.9 0 
0.2 1.9 0 0.35 1.9 0 0.5 1.9 0 
0.65625 1.9 0 0.8125 1.9 0 0.96875 1.9 0 
1.125 1.9 0 1.28125 1.9 0 1.4375 1.9 0 
1.59375 1.9 0 1.75 1.9 0 1.90625 1.9 0 
2.0625 1.9 0 2.21875 1.9 0 2.375 1.9 0 
2.53125 1.9 0 2.6875 1.9 0 2.84375 1.9 0 
3 1.9 0 3.1 1.9 0 3.26111 1.9 0 
3.42222 1.9 0 3.58333 1.9 0 3.74444 1.9 0 
3.90556 1.9 0 4.06667 1.9 0 4.22778 1.9 0 
4.38889 1.9 0 4.55 1.9 0 4.71111 1.9 0 
4.87222 1.9 0 5.03333 1.9 0 5.19444 1.9 0 
5.35556 1.9 0 5.51667 1.9 0 5.67778 1.9 0 
5.83889 1.9 0 6 1.9 0 0 2.05 0 
0.1 2.05 0 0.2 2.05 0 0.35 2.05 0 
0.5 2.05 0 0.65625 2.05 0 0.8125 2.05 0 
0.96875 2.05 0 1.125 2.05 0 1.28125 2.05 0 
1.4375 2.05 0 1.59375 2.05 0 1.75 2.05 0 
1.90625 2.05 0 2.0625 2.05 0 2.21875 2.05 0 
2.375 2.05 0 2.53125 2.05 0 2.6875 2.05 0 
2.84375 2.05 0 3 2.05 0 3.1 2.05 0 
3.26111 2.05 0 3.42222 2.05 0 3.58333 2.05 0 
3.74444 2.05 0 3.90556 2.05 0 4.06667 2.05 0 
4.22778 2.05 0 4.38889 2.05 0 4.55 2.05 0 
4.71111 2.05 0 4.87222 2.05 0 5.03333 2.05 0 
5.19444 2.05 0 5.35556 2.05 0 5.51667 2.05 0 
5.67778 2.05 0 5.83889 2.05 0 6 2.05 0 
0 2.2 0 0.1 2.2 0 0.2 2.2 0 
0.35 2.2 0 0.5 2.2 0 0.65625 2.2 0 
0.8125 2.2 0 0.96875 2.2 0 1.125 2.2 0 
1.28125 2.2 0 1.4375 2.2 0 1.59375 2.2 0 
1.75 2.2 0 1.90625 2.2 0 2.0625 2.2 0 
2.21875 2.2 0 2.375 2.2 0 2.53125 2.2 0 
2.6875 2.2 0 2.84375 2.2 0 3 2.2 0 
3.1 2.2 0 3.26111 2.2 0 3.42222 2.2 0 
3.58333 2.2 0 3.74444 2.2 0 3.90556 2.2 0 
4.06667 2.2 0 4.22778 2.2 0 4.38889 2.2 0 
4.55 2.2 0 4.71111 2.2 0 4.87222 2.2 0 
5.03333 2.2 0 5.19444 2.2 0 5.35556 2.2 0 
5.51667 2.2 0 5.67778 2.2 0 5.83889 2.2 0 
6 2.2 0 0 2.35 0 0.1 2.35 0 
0.2 2.35 0 0.35 2.35 0 0.5 2.35 0 
0.65625 2.35 0 0.8125 2.35 0 0.96875 2.35 0 
1.125 2.35 0 1.28125 2.35 0 1.4375 2.35 0 
1.59375 2.35 0 1.75 2.35 0 1.90625 2.35 0 
2.0625 2.35 0 2.21875 2.35 0 2.375 2.35 0 
2.53125 2.35 0 2.6875 2.35 0 2.84375 2.35 0 
3 2.35 0 3.1 2.35 0 3.26111 2.35 0 
[...]
POINT_DATA 12323
SCALARS t float
LOOKUP_TABLE default
298.514 298.928 298.977 298.969 298.961 298.973 299 299.027 299.053 
299.084 299.119 299.162 299.213 299.275 299.361 299.454 299.498 299.506 
299.582 299.776 299.025 298.381 298.612 298.612 298.612 298.612 298.612 
298.612 298.612 298.612 298.612 298.612 298.612 298.612 298.612 298.612 
298.612 298.612 298.612 298.612 298.919 299.856 300.03 299.949 299.843 
299.853 299.909 299.961 300.015 300.078 300.151 300.238 300.343 300.471 
300.642 300.816 300.893 300.907 301.035 301.408 299.905 298.612 299.075 
299.075 299.075 299.075 299.075 299.075 299.075 299.075 299.075 299.075 
299.075 299.075 299.075 299.075 299.075 299.075 299.075 299.075 303.537 
307.304 305.42 304.368 301.831 300.102 300.146 300.191 300.244 300.308 
300.383 300.472 300.576 300.706 300.857 300.985 301.039 301.054 301.162 
301.509 299.955 298.612 299.075 299.075 299.075 299.075 299.075 299.075 
299.075 299.075 299.075 299.075 299.075 299.075 299.075 299.075 299.075 
299.075 299.075 299.075 311.753 321.75 318.695 314.655 305.249 300.43 
300.438 300.469 300.519 300.583 300.66 300.753 300.869 301.006 301.129 
301.207 301.26 301.349 301.553 301.926 300.156 298.612 299.075 299.075 
299.075 299.075 299.075 299.075 299.075 299.075 299.075 299.075 299.075 
299.075 299.075 299.075 299.075 299.075 299.075 299.075 318.225 334.354 
332.464 324.374 307.466 300.676 300.645 300.657 300.695 300.752 300.826 
300.923 301.05 301.185 301.311 301.457 301.668 301.977 302.37 302.749 
300.534 298.612 299.075 299.075 299.075 299.075 299.075 299.075 299.075 
299.075 299.075 299.075 299.075 299.075 299.075 299.075 299.075 299.075 
299.075 299.075 323.25 344.09 342.508 331.041 309.004 301.047 300.953 
300.915 300.916 300.948 301.019 301.136 301.3 301.509 301.778 302.142 
302.609 303.132 303.612 303.956 301.118 298.612 299.075 299.075 299.075 
299.075 299.075 299.075 299.075 299.075 299.075 299.075 299.075 299.075 
299.075 299.075 299.075 299.075 299.075 299.075 327 351.486 350.459 
336.858 311.13 302.128 301.821 301.642 301.552 301.639 301.891 302.205 
302.53 302.902 303.368 303.929 304.542 305.121 305.557 305.672 301.884 
298.612 299.075 299.075 299.075 299.075 299.075 299.075 299.075 299.075 
299.075 299.075 299.075 299.075 299.075 299.075 299.075 299.075 299.075 
299.075 329.772 357.134 357.405 342.99 315.076 304.968 303.535 303.113 
302.813 302.913 303.632 304.461 305.087 305.564 306.109 306.795 307.479 
307.963 308.267 308.082 302.956 298.612 299.075 299.075 299.075 299.075 
299.075 299.075 299.075 299.075 299.075 299.075 299.075 299.075 299.075 
299.075 299.075 299.075 299.075 299.075 331.878 361.657 363.748 350.013 
322.673 312.976 312.061 310.342 305.749 304.399 305.349 306.44 307.18 
307.794 308.593 309.73 311.099 312.468 313.862 315.167 306.942 298.612 
299.075 299.075 299.075 299.075 299.075 299.075 299.075 299.075 299.075 
299.075 299.075 299.075 299.075 299.075 299.075 299.075 299.075 299.075 
333.318 365.068 368.904 357.61 334.181 333.861 343.352 345.848 339.249 
332.566 328.999 326.483 323.359 320.297 318.407 318.647 321.132 325.078 
328.753 337.003 320.955 298.612 299.075 299.075 299.075 299.075 299.075 
299.075 299.075 299.075 299.075 299.075 299.075 299.075 299.075 299.075 
299.075 299.075 299.075 299.075 334.198 367.459 372.49 365.024 346.747 
353.477 370.358 380.432 382.535 380.391 378.594 377.054 374.489 371.49 
369.179 368.772 370.661 374.055 377.035 386.058 346.076 298.612 299.075 
299.075 299.075 299.075 299.075 299.075 299.075 299.075 299.075 299.075 
299.075 299.075 299.075 299.075 299.075 299.075 299.075 299.075 334.607 
368.857 374.299 371.189 357.953 362.14 375.607 387.289 395.913 402.325 
406.866 410.042 412.22 413.649 414.556 415.337 416.316 417.445 418.55 
421.402 360.937 298.612 299.075 299.075 299.075 299.075 299.075 299.075 
299.075 299.075 299.075 299.075 299.075 299.075 299.075 299.075 299.075 
299.075 299.075 299.075 334.743 369.721 374.398 374.829 366.902 369.093 
378.862 389.176 397.844 404.483 409.239 412.706 415.328 417.369 418.994 
420.311 421.407 422.355 423.26 424.377 361.592 298.612 299.075 299.075 
299.075 299.075 299.075 299.075 299.075 299.075 299.075 299.075 299.075 
299.075 299.075 299.075 299.075 299.075 299.075 299.075 350.955 392.942 
382.039 378.644 373.641 374.081 380.143 388.862 397.757 404.867 410.045 
413.837 416.687 418.873 420.57 421.901 422.957 423.809 424.539 425.38 
362.011 303.199 308.183 308.285 309.663 312.061 313.948 314.87 314.853 
313.926 312.124 309.59 306.725 304.206 302.362 301.047 300.14 299.551 
299.205 299.079 371.209 431.479 406.269 388.854 381.692 380.112 383.572 
390.559 398.543 405.492 410.894 414.941 417.96 420.226 421.944 423.255 
424.259 425.028 425.635 426.28 362.4 325.148 352.018 351.457 351.103 
351.266 351.21 350.678 349.577 347.815 345.351 342.215 338.627 335.008 
331.499 327.817 323.697 319.113 314.51 312.296 375.354 448.347 429.576 
409.693 403.106 402.481 404.776 408.302 411.962 415.29 418.063 420.259 
421.972 423.309 424.362 425.194 425.849 426.357 426.757 427.169 362.775 
342.763 386.887 384.622 380.316 375.614 371.86 369.109 367.053 365.454 
364.169 363.047 361.883 360.41 358.435 355.819 352.303 347.45 341.008 
337.395 375.602 450.719 444.581 437.229 432.719 431.61 431.193 430.564 
429.838 429.171 428.647 428.301 428.101 427.981 427.919 427.889 427.88 
427.9 427.947 428.044 363.131 343.18 386.804 382.478 376.712 371.863 
368.468 366.055 364.237 362.795 361.607 360.6 359.734 358.987 358.348 
357.814 357.269 356.211 353.668 351.878 336.976 375.062 375.35 374.745 
372.067 370.288 368.943 367.83 366.912 366.148 365.507 364.994 364.589 
364.251 363.974 363.743 363.555 363.424 363.344 363.308 330.725 320.747 
342.365 339.64 336.45 334.066 332.483 331.366 330.52 329.842 329.277 
328.791 328.366 327.991 327.663 327.378 327.136 326.935 326.578 326.312 
298.849 299.662 299.762 299.732 299.713 299.741 299.8 299.853 299.908 
299.97 300.045 300.137 300.251 300.392 300.578 300.802 300.952 300.982 
301.112 301.459 299.912 298.612 299.075 299.075 299.075 299.075 299.075 
299.075 299.075 299.075 299.075 299.075 299.075 299.075 299.075 299.075 
299.075 299.075 299.075 299.075 299.61 301.396 301.692 301.546 301.416 
301.475 301.605 301.716 301.831 301.961 302.118 302.308 302.541 302.829 
303.197 303.621 303.887 303.932 304.143 304.809 301.705 299.075 300 
300 300 300 300 300 300 300 300 300 
300 300 300 300 300 300 300 300 312.637 
327.318 329.534 326.264 311.482 302.067 302.197 302.307 302.425 302.563 
302.725 302.918 303.149 303.427 303.753 304.074 304.244 304.273 304.441 
305.052 301.825 299.075 300 300 300 300 300 300 
300 300 300 300 300 300 300 300 300 
300 300 300 334.915 378.296 392.372 373.361 324.892 302.919 
302.979 303.067 303.188 303.341 303.527 303.748 304.013 304.309 304.575 
304.754 304.84 304.947 305.249 305.88 302.221 299.075 300 300 
300 300 300 300 300 300 300 300 300 
300 300 300 300 300 300 300 350.887 420.508 
447.83 407.448 330.121 303.578 303.545 303.587 303.69 303.839 304.031 
304.279 304.595 304.925 305.206 305.458 305.761 306.203 306.808 307.451 
302.953 299.075 300 300 300 300 300 300 300 
300 300 300 300 300 300 300 300 300 
300 300 362.317 449.16 481.429 426.567 333.291 304.353 304.192 
304.141 304.168 304.27 304.455 304.744 305.142 305.63 306.195 306.871 
307.67 308.519 309.286 309.876 304.136 299.075 300 300 300 
300 300 300 300 300 300 300 300 300 
300 300 300 300 300 300 370.379 468.413 503.561 
439.85 336.949 306.654 306.052 305.768 305.667 305.936 306.541 307.242 
307.892 308.593 309.479 310.543 311.663 312.604 313.151 313.229 305.649 
299.075 300 300 300 300 300 300 300 300 
300 300 300 300 300 300 300 300 300 
300 376.285 481.501 519.017 450.983 344.221 313.396 310.266 309.311 
308.864 309.512 311.253 313.005 314.119 314.821 315.762 317.135 318.427 
318.802 318.565 318.134 307.971 299.075 300 300 300 300 
300 300 300 300 300 300 300 300 300 
300 300 300 300 300 380.95 490.93 530.299 462.677 
359.084 330.149 324.612 320.158 314.425 313.944 316.811 319.167 319.929 
320.301 321.419 323.605 326.26 328.246 330.153 333.444 316.83 299.075 
300 300 300 300 300 300 300 300 300 
300 300 300 300 300 300 300 300 300 
384.45 497.044 537.057 475.456 382.575 371.298 383.09 384.352 372.99 
361.746 356.223 352.214 346.336 340.811 338.55 340.962 347.571 356.537 
364.791 382.694 347.632 299.075 300 300 300 300 300 
300 300 300 300 300 300 300 300 300 
300 300 300 300 386.641 499.807 539.459 488.273 409.676 
414.674 444.386 459.93 459.779 453.393 449.57 446.789 441.83 436.202 
433.099 434.87 441.699 451.688 460.642 480.303 397.298 299.075 300 
300 300 300 300 300 300 300 300 300 
300 300 300 300 300 300 300 300 387.251 
498.695 537.287 499.391 434.878 438.464 465.248 485.877 498.839 507.933 
514.923 519.979 523.028 524.613 525.727 527.572 530.777 534.898 538.999 
545.549 424.165 299.075 300 300 300 300 300 300 
300 300 300 300 300 300 300 300 300 
300 300 300 385.702 492.626 529.152 506.162 455.964 454.965 
474.877 494.146 508.713 519.139 526.468 531.835 535.946 539.187 541.766 
543.893 545.783 547.548 549.275 551.307 425.31 299.075 300 300 
300 300 300 300 300 300 300 300 300 
300 300 300 300 300 300 300 402.464 511.03 
526.947 510.467 472.183 465.713 477.692 494.702 510.153 521.623 529.71 
535.583 539.995 543.394 546.043 548.119 549.781 551.097 552.158 553.369 
426.121 307.513 316.769 317.037 319.309 323.05 325.968 327.342 327.161 
325.511 322.556 318.499 313.859 309.605 306.306 303.868 302.153 301.042 
300.34 300.029 428.005 552.959 545.621 520.538 487.37 476.221 480.853 
493.86 508.693 521.184 530.512 537.295 542.269 545.973 548.758 550.857 
552.431 553.539 554.254 555.009 426.818 350.17 402.188 401.679 401.223 
401.156 400.466 398.864 396.249 392.473 387.447 381.199 374.108 366.925 
359.989 352.981 345.512 337.346 328.919 324.739 443.51 582.659 569.412 
544.361 517.941 508.053 508.813 515.079 523.476 531.582 538.169 543.148 
546.859 549.65 551.781 553.416 554.637 555.449 555.887 556.351 427.413 
385.978 472.748 468.515 460.991 452.641 445.393 439.569 434.935 431.123 
427.743 424.521 421.239 417.611 413.352 408.142 401.395 392.134 379.705 
372.686 453.092 599.656 592.156 580.725 562.188 553.516 550.247 549.39 
549.797 550.848 552.043 553.113 554.005 554.752 555.393 555.952 556.421 
556.758 556.959 557.311 427.871 388.056 473.873 463.999 453.06 444.091 
437.421 432.371 428.479 425.431 422.987 420.981 419.299 417.851 416.568 
415.356 413.876 411.22 405.62 401.802 376.341 452.097 452.163 449.538 
441.151 435.894 432.684 430.754 429.589 428.848 428.369 428.048 427.831 
427.695 427.623 427.604 427.624 427.662 427.719 427.903 363.101 343.348 
385.619 379.201 373.058 368.631 365.6 363.399 361.706 360.345 359.21 
358.235 357.384 356.635 355.975 355.402 354.915 354.465 353.569 352.9 
298.805 299.548 299.279 298.912 299.263 299.654 299.71 299.76 299.812 
299.873 299.949 300.045 300.167 300.325 300.529 300.794 301.066 301.192 
301.309 301.578 299.942 298.612 299.075 299.075 299.075 299.075 299.075 
299.075 299.075 299.075 299.075 299.075 299.075 299.075 299.075 299.075 
299.075 299.075 299.075 299.075 299.503 301.055 300.747 300.209 300.716 
301.339 301.486 301.603 301.72 301.855 302.017 302.218 302.471 302.787 
303.18 303.676 304.155 304.367 304.567 305.109 301.806 299.075 300 
300 300 300 300 300 300 300 300 300 
300 300 300 300 300 300 300 300 319.025 
359.326 422.049 413.277 331.562 302.045 302.247 302.383 302.514 302.661 
302.833 303.04 303.291 303.591 303.939 304.325 304.638 304.771 304.926 
305.429 301.972 299.075 300 300 300 300 300 300 
300 300 300 300 300 300 300 300 300 
300 300 300 349.672 455.376 581.09 535.815 361.081 303.262 
303.442 303.588 303.748 303.936 304.155 304.407 304.693 305.002 305.305 
305.539 305.644 305.688 305.838 306.262 302.357 299.075 300 300 
300 300 300 300 300 300 300 300 300 
300 300 300 300 300 300 300 367.87 513.906 
636.322 548.987 359.904 304.307 304.409 304.535 304.713 304.937 305.206 
305.536 305.928 306.336 306.686 306.919 307.043 307.175 307.42 307.758 
303.046 299.075 300 300 300 300 300 300 300 
300 300 300 300 300 300 300 300 300 
300 300 379.443 546.952 664.09 554.215 359.324 305.18 305.136 
305.182 305.303 305.502 305.782 306.175 306.709 307.335 307.973 308.593 
309.158 309.605 309.912 310.153 304.212 299.075 300 300 300 
300 300 300 300 300 300 300 300 300 
300 300 300 300 300 300 386.999 566.388 680.467 
557.478 359.631 307.817 307.251 307.155 307.264 307.715 308.414 309.132 
309.777 310.443 311.281 312.318 313.36 313.969 313.859 313.417 305.681 
299.075 300 300 300 300 300 300 300 300 
300 300 300 300 300 300 300 300 300 
300 392.76 578.456 689.395 559.208 364.305 316.698 313.382 312.546 
312.607 314.008 315.922 317.351 318.17 318.505 319.084 320.387 321.817 
321.604 319.946 319.086 308.61 299.075 300 300 300 300 
300 300 300 300 300 300 300 300 300 
300 300 300 300 300 398.355 586.936 692.24 561.359 
377.045 335.137 326.697 322.595 322.323 325.244 328.592 330.281 330.606 
329.969 329.667 330.986 333.242 333.976 334.048 337.472 319.289 299.075 
300 300 300 300 300 300 300 300 300 
300 300 300 300 300 300 300 300 300 
404.009 592.418 689.153 565.818 399.959 374.343 377.126 374.53 367.863 
361.486 357.765 355.03 351.893 348.696 347.95 351.895 359.958 369.641 
378.39 396.032 353.969 299.075 300 300 300 300 300 
300 300 300 300 300 300 300 300 300 
300 300 300 300 408.911 594.61 681.901 572.344 429.984 
423.188 444.261 451.041 445.912 438.354 433.772 431.318 429.165 426.952 
427.158 432.613 443.42 457.634 470.891 491.53 402.359 299.075 300 
300 300 300 300 300 300 300 300 300 
300 300 300 300 300 300 300 300 411.623 
592.197 671.48 579.972 460.285 458.289 482.044 495.36 500.466 503.704 
506.734 509.359 511.582 513.004 514.484 517.761 523.395 530.98 538.922 
547.255 425.015 299.075 300 300 300 300 300 300 
300 300 300 300 300 300 300 300 300 
300 300 300 410.306 582.09 656.338 586.694 486.671 480.455 
499.52 514.342 522.816 528.161 531.967 534.999 537.555 539.618 541.412 
543.333 545.533 548.095 550.718 552.816 425.917 299.075 300 300 
300 300 300 300 300 300 300 300 300 
300 300 300 300 300 300 300 409.819 571.265 
638.801 590.724 507.343 493.237 504.685 518.981 529.32 536.027 540.567 
543.875 546.386 548.326 549.891 551.266 552.534 553.655 554.433 554.92 
426.646 306.213 314.067 314.37 316.048 318.259 319.873 320.496 320.073 
318.749 316.764 314.209 311.255 308.328 305.795 303.776 302.284 301.283 
300.543 300.094 414.696 569.048 625.727 593.72 523.895 502.468 504.551 
515.371 526.839 535.782 542.092 546.495 549.631 551.924 553.643 554.971 
555.996 556.588 556.572 556.323 427.198 345.942 393.33 392.84 392.773 
392.253 390.621 388.033 384.64 380.479 375.533 369.763 363.38 356.871 
350.589 344.525 338.463 331.983 324.96 321.259 428.052 580.245 620.469 
600.043 543.787 520.162 514.98 519.25 527.494 535.855 542.513 547.329 
550.762 553.251 555.097 556.474 557.443 557.872 557.604 557.148 427.577 
382.798 465.533 460.984 454.894 447.374 439.432 432.331 426.527 421.783 
417.566 413.477 409.381 405.212 400.822 395.883 389.801 381.573 370.334 
363.905 449.129 606.52 627.702 616.157 575.554 554.553 545.294 542.531 
543.391 545.881 548.535 550.747 552.496 553.922 555.119 556.142 556.964 
557.447 557.45 557.339 427.754 387.819 471.396 459.788 449.606 440.8 
433.208 427.121 422.563 419.264 416.856 415.002 413.485 412.15 410.845 
409.359 407.307 403.928 397.629 393.478 379.215 460.408 466.799 462.925 
446.71 437.113 431.657 428.674 427.061 426.236 425.906 425.847 425.95 
426.173 426.467 426.811 427.159 427.436 427.581 427.698 362.966 343.363 
384.201 376.349 370.513 366.495 363.599 361.401 359.677 358.287 357.134 
356.155 355.304 354.556 353.892 353.301 352.76 352.13 350.787 349.813 
298.789 299.454 298.814 298.857 299.581 299.618 299.657 299.697 299.746 
299.809 299.892 300.001 300.147 300.343 300.606 300.952 301.264 301.475 
301.684 299.975 298.612 299.075 299.075 299.075 299.075 299.075 299.075 
299.075 299.075 299.075 299.075 299.075 299.075 299.075 299.075 299.075 
299.075 299.075 299.075 299.48 300.857 299.989 299.075 300.113 301.226 
301.355 301.457 301.557 301.67 301.809 301.984 302.207 302.493 302.861 
303.336 303.938 304.491 304.893 305.354 301.891 299.075 300 300 
300 300 300 300 300 300 300 300 300 
300 300 300 300 300 300 300 318.259 366.746 
445.843 433.431 336.078 302 302.216 302.346 302.465 302.593 302.744 
302.927 303.152 303.424 303.741 304.103 304.506 304.893 305.236 305.716 
302.089 299.075 300 300 300 300 300 300 300 
300 300 300 300 300 300 300 300 300 
300 300 344.437 456.408 601.325 553.895 365.286 303.514 303.786 
303.965 304.127 304.296 304.482 304.692 304.926 305.182 305.455 305.692 
305.836 305.954 306.161 306.546 302.473 299.075 300 300 300 
300 300 300 300 300 300 300 300 300 
300 300 300 300 300 300 355.554 490.676 613.538 
533.25 356.285 304.917 305.206 305.458 305.725 306.017 306.328 306.667 
307.028 307.384 307.702 307.908 307.906 307.781 307.809 308.004 303.13 
299.075 300 300 300 300 300 300 300 300 
300 300 300 300 300 300 300 300 300 
300 361.343 505.829 615.592 520.664 351.608 305.976 306.09 306.293 
306.563 306.898 307.283 307.75 308.351 309.046 309.726 310.328 310.698 
310.628 310.375 310.306 304.241 299.075 300 300 300 300 
300 300 300 300 300 300 300 300 300 
300 300 300 300 300 364.673 512.005 613.452 512.639 
350.698 309.476 308.635 308.542 308.719 309.174 309.753 310.333 310.976 
311.75 312.703 313.881 315.051 315.464 314.709 313.706 305.752 299.075 
300 300 300 300 300 300 300 300 300 
300 300 300 300 300 300 300 300 300 
367.607 515.077 609.479 508.15 356.377 320.181 317.238 315.992 315.726 
316.736 318.004 318.749 319.332 319.688 320.156 321.595 323.797 324.278 
322.299 321.37 309.948 299.075 300 300 300 300 300 
300 300 300 300 300 300 300 300 300 
300 300 300 300 372.543 520.476 606.845 508.44 370.425 
340.953 335.658 331.867 331.19 333.38 335.232 335.702 336.584 336.304 
335.001 335.967 339.449 341.173 340.523 343.318 322.281 299.075 300 
300 300 300 300 300 300 300 300 300 
300 300 300 300 300 300 300 300 379.453 
528.629 605.887 514.494 395.127 379.198 380.235 375.544 369.98 366.41 
363.751 362.186 363.196 362.797 361.093 364.318 373.66 384.349 392.404 
406.144 357.432 299.075 300 300 300 300 300 300 
300 300 300 300 300 300 300 300 300 
300 300 300 387.418 538.342 606.631 525.795 428.375 428.69 
441.245 440.619 434.188 428.639 424.701 423.401 426.003 428.303 430.035 
436.628 449.786 466.241 480.537 498.519 404.41 299.075 300 300 
300 300 300 300 300 300 300 300 300 
300 300 300 300 300 300 300 395.938 549.321 
609.818 541.324 462.909 470.135 487.173 492.076 491.981 492.318 492.959 
494.548 498.193 501.727 504.962 510.376 518.921 529.506 539.654 548.671 
425.643 299.075 300 300 300 300 300 300 300 
300 300 300 300 300 300 300 300 300 
300 300 403.045 558.745 614.51 558.679 492.655 497.28 512.998 
520.968 524.227 526.395 528.47 530.797 533.222 535.164 536.984 539.657 
543.384 547.821 551.949 554.296 426.507 299.075 300 300.039 300.104 
300.138 300.14 300.095 300.032 300.004 300.001 300.001 300.002 300.002 
300.001 300 300 300 300 300 407.661 564.105 618.385 
574.847 515.112 511.731 522.97 532.205 537.74 541.276 543.905 546.025 
547.739 549.083 550.286 551.708 553.459 555.273 556.379 556.397 427.163 
305.241 312.129 312.704 314.454 316.112 317.112 317.308 316.659 315.364 
313.683 311.729 309.598 307.47 305.529 303.886 302.597 301.66 300.867 
300.231 411.197 566.788 620.605 589.18 533.379 520.258 524.443 532.887 
540.285 545.672 549.467 552.126 554.003 555.342 556.379 557.378 558.433 
559.197 558.923 557.775 427.641 342.269 383.908 381.739 382.63 382.875 
381.453 378.661 374.806 370.282 365.378 360.17 354.733 349.249 343.911 
338.755 333.623 328.132 321.999 318.536 418.051 573.65 623.67 603.791 
554.498 534.494 530.086 533.5 539.708 545.751 550.479 553.845 556.206 
557.879 559.095 560.031 560.778 561.091 560.311 558.688 427.988 379.91 
456.656 448.163 440.734 432.498 424.319 417.098 411.043 406.095 401.978 